# vtk DataFile Version 4.2
vtk output
ASCII
DATASET POLYDATA
POINTS 363 float
0.7112 -0.0508 -5.64575e-09 0 -0.0508 -5.64575e-09 0.7112 -0.0483137 -0.0156981 
0 -0.0483137 -0.0156981 0.7112 -0.0410981 -0.0298595 0 -0.0410981 -0.0298595 
0.7112 -0.0298595 -0.0410981 0 -0.0298595 -0.0410981 0.7112 -0.0156981 -0.0483137 
0 -0.0156981 -0.0483137 0.7112 -3.1106e-18 -0.0508 0 -3.1106e-18 -0.0508 
0.7112 0.0156981 -0.0483137 0 0.0156981 -0.0483137 0.7112 0.0298595 -0.0410981 
0 0.0298595 -0.0410981 0.7112 0.0410981 -0.0298595 0 0.0410981 -0.0298595 
0.7112 0.0483137 -0.0156981 0 0.0483137 -0.0156981 0.7112 0.0508 -5.64575e-09 
0 0.0508 -5.64575e-09 0.7112 0.0483137 0.0156981 0 0.0483137 0.0156981 
0.7112 0.0410981 0.0298595 0 0.0410981 0.0298595 0.7112 0.0298595 0.0410981 
0 0.0298595 0.0410981 0.7112 0.0156981 0.0483137 0 0.0156981 0.0483137 
0.7112 9.33181e-18 0.0508 0 9.33181e-18 0.0508 0.7112 -0.0156981 0.0483137 
0 -0.0156981 0.0483137 0.7112 -0.0298595 0.0410981 0 -0.0298595 0.0410981 
0.7112 -0.0410981 0.0298595 0 -0.0410981 0.0298595 0.7112 -0.0483137 0.0156981 
0 -0.0483137 0.0156981 0.7112 0.0986353 -0.0716628 0.7112 0.0716628 -0.0986354 
0.7112 0.115953 -0.0376754 0.7112 0.0376754 -0.115953 0.7112 -2.23963e-17 -0.12192 
0.7112 -0.0376754 -0.115953 0.7112 0.12192 -5.64575e-09 0.7112 0.115953 0.0376753 
0.7112 0.0986353 0.0716628 0.7112 0.0716628 0.0986353 0.7112 0.0376754 0.115953 
0.7112 7.46545e-18 0.12192 0.7112 -0.0376754 0.115953 0.7112 -0.0716628 0.0986353 
0.7112 -0.0986353 0.0716628 0.7112 -0.0716628 -0.0986354 0.7112 -0.0986353 -0.0716628 
0.7112 -0.115953 0.0376753 0.7112 -0.12192 -5.64575e-09 0.7112 -0.115953 -0.0376754 
1.016 0 -5.64575e-09 0.0508 0.7112 -5.64575e-09 0.0508 0 -5.64575e-09 
0.0483137 0.7112 -0.0156981 0.0483137 0 -0.0156981 0.0410981 0.7112 -0.0298595 
0.0410981 0 -0.0298595 0.0298595 0.7112 -0.0410981 0.0298595 0 -0.0410981 
0.0156981 0.7112 -0.0483137 0.0156981 0 -0.0483137 3.1106e-18 0.7112 -0.0508 
3.1106e-18 0 -0.0508 -0.0156981 0.7112 -0.0483137 -0.0156981 0 -0.0483137 
-0.0298595 0.7112 -0.0410981 -0.0298595 0 -0.0410981 -0.0410981 0.7112 -0.0298595 
-0.0410981 0 -0.0298595 -0.0483137 0.7112 -0.0156981 -0.0483137 0 -0.0156981 
-0.0508 0.7112 -5.64575e-09 -0.0508 0 -5.64575e-09 -0.0483137 0.7112 0.0156981 
-0.0483137 0 0.0156981 -0.0410981 0.7112 0.0298595 -0.0410981 0 0.0298595 
-0.0298595 0.7112 0.0410981 -0.0298595 0 0.0410981 -0.0156981 0.7112 0.0483137 
-0.0156981 0 0.0483137 -9.33181e-18 0.7112 0.0508 -9.33181e-18 0 0.0508 
0.0156981 0.7112 0.0483137 0.0156981 0 0.0483137 0.0298595 0.7112 0.0410981 
0.0298595 0 0.0410981 0.0410981 0.7112 0.0298595 0.0410981 0 0.0298595 
0.0483137 0.7112 0.0156981 0.0483137 0 0.0156981 -0.0986353 0.7112 -0.0716628 
-0.0716628 0.7112 -0.0986354 -0.115953 0.7112 -0.0376754 -0.0376754 0.7112 -0.115953 
2.23963e-17 0.7112 -0.12192 0.0376754 0.7112 -0.115953 -0.12192 0.7112 -5.64575e-09 
-0.115953 0.7112 0.0376753 -0.0986353 0.7112 0.0716628 -0.0716628 0.7112 0.0986353 
-0.0376754 0.7112 0.115953 -7.46545e-18 0.7112 0.12192 0.0376754 0.7112 0.115953 
0.0716628 0.7112 0.0986353 0.0986353 0.7112 0.0716628 0.0716628 0.7112 -0.0986354 
0.0986353 0.7112 -0.0716628 0.115953 0.7112 0.0376753 0.12192 0.7112 -5.64575e-09 
0.115953 0.7112 -0.0376754 0 1.016 -5.64575e-09 0 -0.0508 -5.64575e-09 
0 -0.0508 0.7112 0.0156981 -0.0483137 0.7112 0.0156981 -0.0483137 -5.64575e-09 
0.0298595 -0.0410981 0.7112 0.0298595 -0.0410981 -5.64575e-09 0.0410981 -0.0298595 0.7112 
0.0410981 -0.0298595 -5.64575e-09 0.0483137 -0.0156981 0.7112 0.0483137 -0.0156981 -5.64575e-09 
0.0508 -3.1106e-18 0.7112 0.0508 -3.1106e-18 -5.64575e-09 0.0483137 0.0156981 0.7112 
0.0483137 0.0156981 -5.64575e-09 0.0410981 0.0298595 0.7112 0.0410981 0.0298595 -5.64575e-09 
0.0298595 0.0410981 0.7112 0.0298595 0.0410981 -5.64575e-09 0.0156981 0.0483137 0.7112 
0.0156981 0.0483137 -5.64575e-09 6.22121e-18 0.0508 0.7112 6.22121e-18 0.0508 -5.64575e-09 
-0.0156981 0.0483137 0.7112 -0.0156981 0.0483137 -5.64575e-09 -0.0298595 0.0410981 0.7112 
-0.0298595 0.0410981 -5.64575e-09 -0.0410981 0.0298595 0.7112 -0.0410981 0.0298595 -5.64575e-09 
-0.0483137 0.0156981 0.7112 -0.0483137 0.0156981 -5.64575e-09 -0.0508 9.33181e-18 0.7112 
-0.0508 9.33181e-18 -5.64575e-09 -0.0483137 -0.0156981 0.7112 -0.0483137 -0.0156981 -5.64575e-09 
-0.0410981 -0.0298595 0.7112 -0.0410981 -0.0298595 -5.64575e-09 -0.0298595 -0.0410981 0.7112 
-0.0298595 -0.0410981 -5.64575e-09 -0.0156981 -0.0483137 0.7112 -0.0156981 -0.0483137 -5.64575e-09 
0.0716628 0.0986353 0.7112 0.0986353 0.0716628 0.7112 0.0376754 0.115953 0.7112 
0.115953 0.0376754 0.7112 0.12192 -2.23963e-17 0.7112 0.115953 -0.0376754 0.7112 
0 0.12192 0.7112 -0.0376754 0.115953 0.7112 -0.0716628 0.0986353 0.7112 
-0.0986353 0.0716628 0.7112 -0.115953 0.0376754 0.7112 -0.12192 7.46545e-18 0.7112 
-0.115953 -0.0376754 0.7112 -0.0986353 -0.0716628 0.7112 -0.0716628 -0.0986353 0.7112 
0.0986353 -0.0716628 0.7112 0.0716628 -0.0986353 0.7112 -0.0376754 -0.115953 0.7112 
-1.49309e-17 -0.12192 0.7112 0.0376754 -0.115953 0.7112 0 0 1.016 
0.7112 -0.0508 -5.64575e-09 0 -0.0508 -5.64575e-09 0.7112 -0.0483137 -0.0156981 
0 -0.0483137 -0.0156981 0.7112 -0.0410981 -0.0298595 0 -0.0410981 -0.0298595 
0.7112 -0.0298595 -0.0410981 0 -0.0298595 -0.0410981 0.7112 -0.0156981 -0.0483137 
0 -0.0156981 -0.0483137 0.7112 -3.1106e-18 -0.0508 0 -3.1106e-18 -0.0508 
0.7112 0.0156981 -0.0483137 0 0.0156981 -0.0483137 0.7112 0.0298595 -0.0410981 
0 0.0298595 -0.0410981 0.7112 0.0410981 -0.0298595 0 0.0410981 -0.0298595 
0.7112 0.0483137 -0.0156981 0 0.0483137 -0.0156981 0.7112 0.0508 -5.64575e-09 
0 0.0508 -5.64575e-09 0.7112 0.0483137 0.0156981 0 0.0483137 0.0156981 
0.7112 0.0410981 0.0298595 0 0.0410981 0.0298595 0.7112 0.0298595 0.0410981 
0 0.0298595 0.0410981 0.7112 0.0156981 0.0483137 0 0.0156981 0.0483137 
0.7112 9.33181e-18 0.0508 0 9.33181e-18 0.0508 0.7112 -0.0156981 0.0483137 
0 -0.0156981 0.0483137 0.7112 -0.0298595 0.0410981 0 -0.0298595 0.0410981 
0.7112 -0.0410981 0.0298595 0 -0.0410981 0.0298595 0.7112 -0.0483137 0.0156981 
0 -0.0483137 0.0156981 0.7112 0.0986353 -0.0716628 0.7112 0.0716628 -0.0986354 
0.7112 0.115953 -0.0376754 0.7112 0.0376754 -0.115953 0.7112 -2.23963e-17 -0.12192 
0.7112 -0.0376754 -0.115953 0.7112 0.12192 -5.64575e-09 0.7112 0.115953 0.0376753 
0.7112 0.0986353 0.0716628 0.7112 0.0716628 0.0986353 0.7112 0.0376754 0.115953 
0.7112 7.46545e-18 0.12192 0.7112 -0.0376754 0.115953 0.7112 -0.0716628 0.0986353 
0.7112 -0.0986353 0.0716628 0.7112 -0.0716628 -0.0986354 0.7112 -0.0986353 -0.0716628 
0.7112 -0.115953 0.0376753 0.7112 -0.12192 -5.64575e-09 0.7112 -0.115953 -0.0376754 
0.0508 0.7112 -5.64575e-09 0.0508 0 -5.64575e-09 0.0483137 0.7112 -0.0156981 
0.0483137 0 -0.0156981 0.0410981 0.7112 -0.0298595 0.0410981 0 -0.0298595 
0.0298595 0.7112 -0.0410981 0.0298595 0 -0.0410981 0.0156981 0.7112 -0.0483137 
0.0156981 0 -0.0483137 3.1106e-18 0.7112 -0.0508 3.1106e-18 0 -0.0508 
-0.0156981 0.7112 -0.0483137 -0.0156981 0 -0.0483137 -0.0298595 0.7112 -0.0410981 
-0.0298595 0 -0.0410981 -0.0410981 0.7112 -0.0298595 -0.0410981 0 -0.0298595 
-0.0483137 0.7112 -0.0156981 -0.0483137 0 -0.0156981 -0.0508 0.7112 -5.64575e-09 
-0.0508 0 -5.64575e-09 -0.0483137 0.7112 0.0156981 -0.0483137 0 0.0156981 
-0.0410981 0.7112 0.0298595 -0.0410981 0 0.0298595 -0.0298595 0.7112 0.0410981 
-0.0298595 0 0.0410981 -0.0156981 0.7112 0.0483137 -0.0156981 0 0.0483137 
-9.33181e-18 0.7112 0.0508 -9.33181e-18 0 0.0508 0.0156981 0.7112 0.0483137 
0.0156981 0 0.0483137 0.0298595 0.7112 0.0410981 0.0298595 0 0.0410981 
0.0410981 0.7112 0.0298595 0.0410981 0 0.0298595 0.0483137 0.7112 0.0156981 
0.0483137 0 0.0156981 -0.0986353 0.7112 -0.0716628 -0.0716628 0.7112 -0.0986354 
-0.115953 0.7112 -0.0376754 -0.0376754 0.7112 -0.115953 2.23963e-17 0.7112 -0.12192 
0.0376754 0.7112 -0.115953 -0.12192 0.7112 -5.64575e-09 -0.115953 0.7112 0.0376753 
-0.0986353 0.7112 0.0716628 -0.0716628 0.7112 0.0986353 -0.0376754 0.7112 0.115953 
-7.46545e-18 0.7112 0.12192 0.0376754 0.7112 0.115953 0.0716628 0.7112 0.0986353 
0.0986353 0.7112 0.0716628 0.0716628 0.7112 -0.0986354 0.0986353 0.7112 -0.0716628 
0.115953 0.7112 0.0376753 0.12192 0.7112 -5.64575e-09 0.115953 0.7112 -0.0376754 
0 -0.0508 -5.64575e-09 0 -0.0508 0.7112 0.0156981 -0.0483137 0.7112 
0.0156981 -0.0483137 -5.64575e-09 0.0298595 -0.0410981 0.7112 0.0298595 -0.0410981 -5.64575e-09 
0.0410981 -0.0298595 0.7112 0.0410981 -0.0298595 -5.64575e-09 0.0483137 -0.0156981 0.7112 
0.0483137 -0.0156981 -5.64575e-09 0.0508 -3.1106e-18 0.7112 0.0508 -3.1106e-18 -5.64575e-09 
0.0483137 0.0156981 0.7112 0.0483137 0.0156981 -5.64575e-09 0.0410981 0.0298595 0.7112 
0.0410981 0.0298595 -5.64575e-09 0.0298595 0.0410981 0.7112 0.0298595 0.0410981 -5.64575e-09 
0.0156981 0.0483137 0.7112 0.0156981 0.0483137 -5.64575e-09 6.22121e-18 0.0508 0.7112 
6.22121e-18 0.0508 -5.64575e-09 -0.0156981 0.0483137 0.7112 -0.0156981 0.0483137 -5.64575e-09 
-0.0298595 0.0410981 0.7112 -0.0298595 0.0410981 -5.64575e-09 -0.0410981 0.0298595 0.7112 
-0.0410981 0.0298595 -5.64575e-09 -0.0483137 0.0156981 0.7112 -0.0483137 0.0156981 -5.64575e-09 
-0.0508 9.33181e-18 0.7112 -0.0508 9.33181e-18 -5.64575e-09 -0.0483137 -0.0156981 0.7112 
-0.0483137 -0.0156981 -5.64575e-09 -0.0410981 -0.0298595 0.7112 -0.0410981 -0.0298595 -5.64575e-09 
-0.0298595 -0.0410981 0.7112 -0.0298595 -0.0410981 -5.64575e-09 -0.0156981 -0.0483137 0.7112 
-0.0156981 -0.0483137 -5.64575e-09 0.0716628 0.0986353 0.7112 0.0986353 0.0716628 0.7112 
0.0376754 0.115953 0.7112 0.115953 0.0376754 0.7112 0.12192 -2.23963e-17 0.7112 
0.115953 -0.0376754 0.7112 0 0.12192 0.7112 -0.0376754 0.115953 0.7112 
-0.0716628 0.0986353 0.7112 -0.0986353 0.0716628 0.7112 -0.115953 0.0376754 0.7112 
-0.12192 7.46545e-18 0.7112 -0.115953 -0.0376754 0.7112 -0.0986353 -0.0716628 0.7112 
-0.0716628 -0.0986353 0.7112 0.0986353 -0.0716628 0.7112 0.0716628 -0.0986353 0.7112 
-0.0376754 -0.115953 0.7112 -1.49309e-17 -0.12192 0.7112 0.0376754 -0.115953 0.7112 

METADATA
INFORMATION 0

POLYGONS 342 1368
3 0 1 2 
3 183 185 38 
3 221 39 0 
3 39 221 37 
3 220 29 222 
3 29 27 222 
3 27 25 222 
3 222 25 184 
3 184 25 3 
3 25 23 3 
3 23 21 3 
3 21 19 3 
3 3 19 5 
3 188 4 186 
3 2 186 4 
3 185 187 32 
3 34 185 32 
3 215 33 217 
3 35 217 33 
3 216 29 218 
3 31 29 216 
3 214 30 212 
3 28 212 30 
3 213 6 211 
3 6 8 211 
3 8 10 211 
3 10 12 211 
3 211 12 26 
3 209 210 28 
3 12 14 26 
3 26 14 24 
3 207 208 209 
3 14 16 24 
3 24 16 22 
3 205 206 207 
3 22 16 20 
3 203 204 205 
3 20 16 18 
3 201 202 203 
3 202 201 17 
3 199 17 201 
3 17 199 15 
3 200 198 7 
3 5 200 7 
3 190 189 188 
3 7 198 9 
3 192 191 190 
3 9 198 11 
3 194 193 192 
3 198 13 11 
3 196 195 194 
3 15 197 196 
3 197 15 199 
3 195 196 197 
3 193 194 195 
3 191 192 193 
3 189 190 191 
3 32 6 213 
3 30 214 215 
3 217 35 36 
3 37 36 35 
3 33 215 214 
3 219 185 34 
3 187 6 32 
3 4 188 189 
3 19 200 5 
3 204 203 202 
3 206 205 204 
3 208 207 206 
3 210 209 208 
3 212 28 210 
3 218 29 220 
3 36 37 221 
3 38 185 219 
3 186 2 1 
3 1 0 39 
3 40 41 42 
3 60 223 225 
3 60 225 46 
3 60 46 47 
3 60 47 48 
3 60 48 49 
3 60 49 50 
3 60 50 51 
3 60 51 52 
3 60 52 53 
3 60 53 54 
3 60 54 57 
3 60 57 58 
3 60 58 59 
3 60 59 56 
3 60 56 55 
3 60 55 45 
3 60 45 44 
3 60 44 43 
3 60 43 224 
3 226 227 42 
3 227 228 42 
3 228 238 237 
3 238 239 237 
3 242 241 239 
3 240 239 241 
3 237 239 240 
3 236 228 237 
3 235 228 236 
3 234 228 235 
3 233 228 234 
3 232 228 233 
3 231 228 232 
3 230 228 231 
3 229 228 230 
3 42 228 229 
3 41 226 42 
3 60 224 223 
3 61 62 63 
3 243 245 99 
3 281 100 61 
3 100 281 98 
3 280 90 282 
3 90 88 282 
3 88 86 282 
3 282 86 244 
3 244 86 64 
3 86 84 64 
3 84 82 64 
3 82 80 64 
3 64 80 66 
3 248 65 246 
3 63 246 65 
3 245 247 93 
3 95 245 93 
3 275 94 277 
3 96 277 94 
3 276 90 278 
3 92 90 276 
3 274 91 272 
3 89 272 91 
3 273 67 271 
3 67 69 271 
3 69 71 271 
3 71 73 271 
3 271 73 87 
3 269 270 89 
3 73 75 87 
3 87 75 85 
3 267 268 269 
3 75 77 85 
3 85 77 83 
3 265 266 267 
3 83 77 81 
3 263 264 265 
3 81 77 79 
3 261 262 263 
3 262 261 78 
3 259 78 261 
3 78 259 76 
3 260 258 68 
3 66 260 68 
3 250 249 248 
3 68 258 70 
3 252 251 250 
3 70 258 72 
3 254 253 252 
3 258 74 72 
3 256 255 254 
3 76 257 256 
3 257 76 259 
3 255 256 257 
3 253 254 255 
3 251 252 253 
3 249 250 251 
3 93 67 273 
3 91 274 275 
3 277 96 97 
3 98 97 96 
3 94 275 274 
3 279 245 95 
3 247 67 93 
3 65 248 249 
3 80 260 66 
3 264 263 262 
3 266 265 264 
3 268 267 266 
3 270 269 268 
3 272 89 270 
3 278 90 280 
3 97 98 281 
3 99 245 279 
3 246 63 62 
3 62 61 100 
3 101 102 103 
3 121 283 285 
3 121 285 107 
3 121 107 108 
3 121 108 109 
3 121 109 110 
3 121 110 111 
3 121 111 112 
3 121 112 113 
3 121 113 114 
3 121 114 115 
3 121 115 118 
3 121 118 119 
3 121 119 120 
3 121 120 117 
3 121 117 116 
3 121 116 106 
3 121 106 105 
3 121 105 104 
3 121 104 284 
3 286 287 103 
3 287 288 103 
3 288 298 297 
3 298 299 297 
3 302 301 299 
3 300 299 301 
3 297 299 300 
3 296 288 297 
3 295 288 296 
3 294 288 295 
3 293 288 294 
3 292 288 293 
3 291 288 292 
3 290 288 291 
3 289 288 290 
3 103 288 289 
3 102 286 103 
3 121 284 283 
3 123 122 124 
3 304 305 160 
3 341 161 123 
3 161 341 159 
3 340 151 342 
3 151 149 342 
3 149 147 342 
3 342 147 303 
3 303 147 125 
3 147 145 125 
3 145 143 125 
3 143 141 125 
3 125 141 127 
3 308 126 306 
3 124 306 126 
3 305 307 154 
3 156 305 154 
3 335 155 337 
3 157 337 155 
3 336 151 338 
3 153 151 336 
3 334 152 332 
3 150 332 152 
3 333 128 331 
3 128 130 331 
3 130 132 331 
3 132 134 331 
3 331 134 148 
3 329 330 150 
3 134 136 148 
3 148 136 146 
3 327 328 329 
3 136 138 146 
3 146 138 144 
3 325 326 327 
3 144 138 142 
3 323 324 325 
3 142 138 140 
3 321 322 323 
3 322 321 139 
3 319 139 321 
3 139 319 137 
3 320 318 129 
3 127 320 129 
3 310 309 308 
3 129 318 131 
3 312 311 310 
3 131 318 133 
3 314 313 312 
3 318 135 133 
3 316 315 314 
3 137 317 316 
3 317 137 319 
3 315 316 317 
3 313 314 315 
3 311 312 313 
3 309 310 311 
3 154 128 333 
3 152 334 335 
3 337 157 158 
3 159 158 157 
3 155 335 334 
3 339 305 156 
3 307 128 154 
3 126 308 309 
3 141 320 127 
3 324 323 322 
3 326 325 324 
3 328 327 326 
3 330 329 328 
3 332 150 330 
3 338 151 340 
3 158 159 341 
3 160 305 339 
3 306 124 122 
3 122 123 161 
3 162 163 164 
3 182 343 345 
3 182 345 168 
3 182 168 169 
3 182 169 170 
3 182 170 171 
3 182 171 172 
3 182 172 173 
3 182 173 174 
3 182 174 175 
3 182 175 176 
3 182 176 179 
3 182 179 180 
3 182 180 181 
3 182 181 178 
3 182 178 177 
3 182 177 167 
3 182 167 166 
3 182 166 165 
3 182 165 344 
3 346 347 164 
3 347 348 164 
3 348 358 357 
3 358 359 357 
3 362 361 359 
3 360 359 361 
3 357 359 360 
3 356 348 357 
3 355 348 356 
3 354 348 355 
3 353 348 354 
3 352 348 353 
3 351 348 352 
3 350 348 351 
3 349 348 350 
3 164 348 349 
3 163 346 164 
3 182 344 343 

POINT_DATA 363
COLOR_SCALARS RGBA 4
0.92549 0.105882 0.137255 1 0.92549 0.105882 0.137255 1 0.92549 0.105882 0.137255 1 
0.92549 0.105882 0.137255 1 0.92549 0.105882 0.137255 1 
0.92549 0.105882 0.137255 1 0.92549 0.105882 0.137255 1 
0.92549 0.105882 0.137255 1 0.92549 0.105882 0.137255 1 
0.92549 0.105882 0.137255 1 0.92549 0.105882 0.137255 1 
0.92549 0.105882 0.137255 1 0.92549 0.105882 0.137255 1 
0.92549 0.105882 0.137255 1 0.92549 0.105882 0.137255 1 
0.92549 0.105882 0.137255 1 0.92549 0.105882 0.137255 1 
0.92549 0.105882 0.137255 1 0.92549 0.105882 0.137255 1 
0.92549 0.105882 0.137255 1 0.92549 0.105882 0.137255 1 
0.92549 0.105882 0.137255 1 0.92549 0.105882 0.137255 1 
0.92549 0.105882 0.137255 1 0.92549 0.105882 0.137255 1 
0.92549 0.105882 0.137255 1 0.92549 0.105882 0.137255 1 
0.92549 0.105882 0.137255 1 0.92549 0.105882 0.137255 1 
0.92549 0.105882 0.137255 1 0.92549 0.105882 0.137255 1 
0.92549 0.105882 0.137255 1 0.92549 0.105882 0.137255 1 
0.92549 0.105882 0.137255 1 0.92549 0.105882 0.137255 1 
0.92549 0.105882 0.137255 1 0.92549 0.105882 0.137255 1 
0.92549 0.105882 0.137255 1 0.92549 0.105882 0.137255 1 
0.92549 0.105882 0.137255 1 0.92549 0.105882 0.137255 1 
0.92549 0.105882 0.137255 1 0.92549 0.105882 0.137255 1 
0.92549 0.105882 0.137255 1 0.92549 0.105882 0.137255 1 
0.92549 0.105882 0.137255 1 0.92549 0.105882 0.137255 1 
0.92549 0.105882 0.137255 1 0.92549 0.105882 0.137255 1 
0.92549 0.105882 0.137255 1 0.92549 0.105882 0.137255 1 
0.92549 0.105882 0.137255 1 0.92549 0.105882 0.137255 1 
0.92549 0.105882 0.137255 1 0.92549 0.105882 0.137255 1 
0.92549 0.105882 0.137255 1 0.92549 0.105882 0.137255 1 
0.92549 0.105882 0.137255 1 0.92549 0.105882 0.137255 1 
0.92549 0.105882 0.137255 1 0.92549 0.105882 0.137255 1 
0.129412 0.733333 0.298039 1 0.129412 0.733333 0.298039 1 
0.129412 0.733333 0.298039 1 0.129412 0.733333 0.298039 1 
0.129412 0.733333 0.298039 1 0.129412 0.733333 0.298039 1 
0.129412 0.733333 0.298039 1 0.129412 0.733333 0.298039 1 
0.129412 0.733333 0.298039 1 0.129412 0.733333 0.298039 1 
0.129412 0.733333 0.298039 1 0.129412 0.733333 0.298039 1 
0.129412 0.733333 0.298039 1 0.129412 0.733333 0.298039 1 
0.129412 0.733333 0.298039 1 0.129412 0.733333 0.298039 1 
0.129412 0.733333 0.298039 1 0.129412 0.733333 0.298039 1 
0.129412 0.733333 0.298039 1 0.129412 0.733333 0.298039 1 
0.129412 0.733333 0.298039 1 0.129412 0.733333 0.298039 1 
0.129412 0.733333 0.298039 1 0.129412 0.733333 0.298039 1 
0.129412 0.733333 0.298039 1 0.129412 0.733333 0.298039 1 
0.129412 0.733333 0.298039 1 0.129412 0.733333 0.298039 1 
0.129412 0.733333 0.298039 1 0.129412 0.733333 0.298039 1 
0.129412 0.733333 0.298039 1 0.129412 0.733333 0.298039 1 
0.129412 0.733333 0.298039 1 0.129412 0.733333 0.298039 1 
0.129412 0.733333 0.298039 1 0.129412 0.733333 0.298039 1 
0.129412 0.733333 0.298039 1 0.129412 0.733333 0.298039 1 
0.129412 0.733333 0.298039 1 0.129412 0.733333 0.298039 1 
0.129412 0.733333 0.298039 1 0.129412 0.733333 0.298039 1 
0.129412 0.733333 0.298039 1 0.129412 0.733333 0.298039 1 
0.129412 0.733333 0.298039 1 0.129412 0.733333 0.298039 1 
0.129412 0.733333 0.298039 1 0.129412 0.733333 0.298039 1 
0.129412 0.733333 0.298039 1 0.129412 0.733333 0.298039 1 
0.129412 0.733333 0.298039 1 0.129412 0.733333 0.298039 1 
0.129412 0.733333 0.298039 1 0.129412 0.733333 0.298039 1 
0.129412 0.733333 0.298039 1 0.129412 0.733333 0.298039 1 
0.129412 0.733333 0.298039 1 0.129412 0.733333 0.298039 1 
0.129412 0.733333 0.298039 1 0.129412 0.733333 0.298039 1 
0.129412 0.733333 0.298039 1 0 0.627451 0.909804 1 
0 0.627451 0.909804 1 0 0.627451 0.909804 1 
0 0.627451 0.909804 1 0 0.627451 0.909804 1 
0 0.627451 0.909804 1 0 0.627451 0.909804 1 
0 0.627451 0.909804 1 0 0.627451 0.909804 1 
0 0.627451 0.909804 1 0 0.627451 0.909804 1 
0 0.627451 0.909804 1 0 0.627451 0.909804 1 
0 0.627451 0.909804 1 0 0.627451 0.909804 1 
0 0.627451 0.909804 1 0 0.627451 0.909804 1 
0 0.627451 0.909804 1 0 0.627451 0.909804 1 
0 0.627451 0.909804 1 0 0.627451 0.909804 1 
0 0.627451 0.909804 1 0 0.627451 0.909804 1 
0 0.627451 0.909804 1 0 0.627451 0.909804 1 
0 0.627451 0.909804 1 0 0.627451 0.909804 1 
0 0.627451 0.909804 1 0 0.627451 0.909804 1 
0 0.627451 0.909804 1 0 0.627451 0.909804 1 
0 0.627451 0.909804 1 0 0.627451 0.909804 1 
0 0.627451 0.909804 1 0 0.627451 0.909804 1 
0 0.627451 0.909804 1 0 0.627451 0.909804 1 
0 0.627451 0.909804 1 0 0.627451 0.909804 1 
0 0.627451 0.909804 1 0 0.627451 0.909804 1 
0 0.627451 0.909804 1 0 0.627451 0.909804 1 
0 0.627451 0.909804 1 0 0.627451 0.909804 1 
0 0.627451 0.909804 1 0 0.627451 0.909804 1 
0 0.627451 0.909804 1 0 0.627451 0.909804 1 
0 0.627451 0.909804 1 0 0.627451 0.909804 1 
0 0.627451 0.909804 1 0 0.627451 0.909804 1 
0 0.627451 0.909804 1 0 0.627451 0.909804 1 
0 0.627451 0.909804 1 0 0.627451 0.909804 1 
0 0.627451 0.909804 1 0 0.627451 0.909804 1 
0 0.627451 0.909804 1 0 0.627451 0.909804 1 
0.92549 0.105882 0.137255 1 0.92549 0.105882 0.137255 1 
0.92549 0.105882 0.137255 1 0.92549 0.105882 0.137255 1 
0.92549 0.105882 0.137255 1 0.92549 0.105882 0.137255 1 
0.92549 0.105882 0.137255 1 0.92549 0.105882 0.137255 1 
0.92549 0.105882 0.137255 1 0.92549 0.105882 0.137255 1 
0.92549 0.105882 0.137255 1 0.92549 0.105882 0.137255 1 
0.92549 0.105882 0.137255 1 0.92549 0.105882 0.137255 1 
0.92549 0.105882 0.137255 1 0.92549 0.105882 0.137255 1 
0.92549 0.105882 0.137255 1 0.92549 0.105882 0.137255 1 
0.92549 0.105882 0.137255 1 0.92549 0.105882 0.137255 1 
0.92549 0.105882 0.137255 1 0.92549 0.105882 0.137255 1 
0.92549 0.105882 0.137255 1 0.92549 0.105882 0.137255 1 
0.92549 0.105882 0.137255 1 0.92549 0.105882 0.137255 1 
0.92549 0.105882 0.137255 1 0.92549 0.105882 0.137255 1 
0.92549 0.105882 0.137255 1 0.92549 0.105882 0.137255 1 
0.92549 0.105882 0.137255 1 0.92549 0.105882 0.137255 1 
0.92549 0.105882 0.137255 1 0.92549 0.105882 0.137255 1 
0.92549 0.105882 0.137255 1 0.92549 0.105882 0.137255 1 
0.92549 0.105882 0.137255 1 0.92549 0.105882 0.137255 1 
0.92549 0.105882 0.137255 1 0.92549 0.105882 0.137255 1 
0.92549 0.105882 0.137255 1 0.92549 0.105882 0.137255 1 
0.92549 0.105882 0.137255 1 0.92549 0.105882 0.137255 1 
0.92549 0.105882 0.137255 1 0.92549 0.105882 0.137255 1 
0.92549 0.105882 0.137255 1 0.92549 0.105882 0.137255 1 
0.92549 0.105882 0.137255 1 0.92549 0.105882 0.137255 1 
0.92549 0.105882 0.137255 1 0.92549 0.105882 0.137255 1 
0.92549 0.105882 0.137255 1 0.92549 0.105882 0.137255 1 
0.92549 0.105882 0.137255 1 0.92549 0.105882 0.137255 1 
0.92549 0.105882 0.137255 1 0.92549 0.105882 0.137255 1 
0.92549 0.105882 0.137255 1 0.92549 0.105882 0.137255 1 
0.129412 0.733333 0.298039 1 0.129412 0.733333 0.298039 1 
0.129412 0.733333 0.298039 1 0.129412 0.733333 0.298039 1 
0.129412 0.733333 0.298039 1 0.129412 0.733333 0.298039 1 
0.129412 0.733333 0.298039 1 0.129412 0.733333 0.298039 1 
0.129412 0.733333 0.298039 1 0.129412 0.733333 0.298039 1 
0.129412 0.733333 0.298039 1 0.129412 0.733333 0.298039 1 
0.129412 0.733333 0.298039 1 0.129412 0.733333 0.298039 1 
0.129412 0.733333 0.298039 1 0.129412 0.733333 0.298039 1 
0.129412 0.733333 0.298039 1 0.129412 0.733333 0.298039 1 
0.129412 0.733333 0.298039 1 0.129412 0.733333 0.298039 1 
0.129412 0.733333 0.298039 1 0.129412 0.733333 0.298039 1 
0.129412 0.733333 0.298039 1 0.129412 0.733333 0.298039 1 
0.129412 0.733333 0.298039 1 0.129412 0.733333 0.298039 1 
0.129412 0.733333 0.298039 1 0.129412 0.733333 0.298039 1 
0.129412 0.733333 0.298039 1 0.129412 0.733333 0.298039 1 
0.129412 0.733333 0.298039 1 0.129412 0.733333 0.298039 1 
0.129412 0.733333 0.298039 1 0.129412 0.733333 0.298039 1 
0.129412 0.733333 0.298039 1 0.129412 0.733333 0.298039 1 
0.129412 0.733333 0.298039 1 0.129412 0.733333 0.298039 1 
0.129412 0.733333 0.298039 1 0.129412 0.733333 0.298039 1 
0.129412 0.733333 0.298039 1 0.129412 0.733333 0.298039 1 
0.129412 0.733333 0.298039 1 0.129412 0.733333 0.298039 1 
0.129412 0.733333 0.298039 1 0.129412 0.733333 0.298039 1 
0.129412 0.733333 0.298039 1 0.129412 0.733333 0.298039 1 
0.129412 0.733333 0.298039 1 0.129412 0.733333 0.298039 1 
0.129412 0.733333 0.298039 1 0.129412 0.733333 0.298039 1 
0.129412 0.733333 0.298039 1 0.129412 0.733333 0.298039 1 
0.129412 0.733333 0.298039 1 0.129412 0.733333 0.298039 1 
0.129412 0.733333 0.298039 1 0.129412 0.733333 0.298039 1 
0.129412 0.733333 0.298039 1 0.129412 0.733333 0.298039 1 
0 0.627451 0.909804 1 0 0.627451 0.909804 1 
0 0.627451 0.909804 1 0 0.627451 0.909804 1 
0 0.627451 0.909804 1 0 0.627451 0.909804 1 
0 0.627451 0.909804 1 0 0.627451 0.909804 1 
0 0.627451 0.909804 1 0 0.627451 0.909804 1 
0 0.627451 0.909804 1 0 0.627451 0.909804 1 
0 0.627451 0.909804 1 0 0.627451 0.909804 1 
0 0.627451 0.909804 1 0 0.627451 0.909804 1 
0 0.627451 0.909804 1 0 0.627451 0.909804 1 
0 0.627451 0.909804 1 0 0.627451 0.909804 1 
0 0.627451 0.909804 1 0 0.627451 0.909804 1 
0 0.627451 0.909804 1 0 0.627451 0.909804 1 
0 0.627451 0.909804 1 0 0.627451 0.909804 1 
0 0.627451 0.909804 1 0 0.627451 0.909804 1 
0 0.627451 0.909804 1 0 0.627451 0.909804 1 
0 0.627451 0.909804 1 0 0.627451 0.909804 1 
0 0.627451 0.909804 1 0 0.627451 0.909804 1 
0 0.627451 0.909804 1 0 0.627451 0.909804 1 
0 0.627451 0.909804 1 0 0.627451 0.909804 1 
0 0.627451 0.909804 1 0 0.627451 0.909804 1 
0 0.627451 0.909804 1 0 0.627451 0.909804 1 
0 0.627451 0.909804 1 0 0.627451 0.909804 1 
0 0.627451 0.909804 1 0 0.627451 0.909804 1 
0 0.627451 0.909804 1 0 0.627451 0.909804 1 
0 0.627451 0.909804 1 0 0.627451 0.909804 1 
0 0.627451 0.909804 1 0 0.627451 0.909804 1 
0 0.627451 0.909804 1 0 0.627451 0.909804 1 
0 0.627451 0.909804 1 0 0.627451 0.909804 1 
0 0.627451 0.909804 1 0 0.627451 0.909804 1 
0 0.627451 0.909804 1 0 0.627451 0.909804 1 

NORMALS Normals float
0 -0.998609 0.0527214 0 -0.998609 -0.0527214 0 -0.966026 -0.258446 
-1 0 0 0 -0.838881 -0.544315 -1 0 0 
1 0 0 -1 0 0 1 0 0 
-1 0 0 1 0 0 -1 0 0 
1 0 0 -1 0 0 1 0 0 
0 0.62962 -0.776903 1 0 0 0 0.838881 -0.544315 
1 0 0 -1 0 0 1 0 0 
-1 0 0 1 0 0 -1 0 0 
1 0 0 -1 0 0 1 0 0 
-1 0 0 0 0.358728 0.933442 -1 0 0 
0 0.0527213 0.998609 -1 0 0 1 0 0 
0 -0.358728 0.933442 1 0 0 0 -0.62962 0.776903 
0 -0.776903 0.62962 0 -0.838881 0.544315 1 0 0 
0 -0.966026 0.258446 -1 0 0 -1 0 0 
-1 0 0 0.371391 0.286915 -0.883034 0.371391 0 -0.928477 
0.371391 -0.286915 -0.883034 0.371391 0.928477 0 0.371391 0.883034 0.286915 
0.371391 0.751153 0.545745 0.371391 0.545745 0.751153 0.371391 0.286915 0.883034 
0.371391 0 0.928477 0.371391 -0.286915 0.883034 0.371391 -0.545745 0.751153 
0.371391 -0.751153 0.545745 0.371391 -0.545745 -0.751153 0.371391 -0.751153 -0.545745 
0.371391 -0.883034 0.286915 0.371391 -0.928477 0 0.371391 -0.883034 -0.286915 
1 6.48866e-08 8.11083e-09 0.998609 0 0.0527214 0.998609 0 -0.0527214 
0.966026 0 -0.258446 0 -1 0 0.838881 0 -0.544315 
0 -1 0 0 1 0 0 -1 0 
0 1 0 0 -1 0 0 1 0 
0 -1 0 0 1 0 0 -1 0 
0 1 0 -0.62962 0 -0.776903 0 1 0 
-0.838881 0 -0.544315 0 1 0 0 -1 0 
0 1 0 0 -1 0 0 1 0 
0 -1 0 0 1 0 0 -1 0 
0 1 0 0 -1 0 -0.358728 0 0.933442 
0 -1 0 -0.0527213 0 0.998609 0 -1 0 
0 1 0 0.358728 0 0.933442 0 1 0 
0.62962 0 0.776903 0.776903 0 0.62962 0.838881 0 0.544315 
0 1 0 0.966026 0 0.258446 0 -1 0 
0 -1 0 0 -1 0 -0.286915 0.371391 -0.883034 
0 0.371391 -0.928477 0.286915 0.371391 -0.883034 -0.928477 0.371391 0 
-0.883034 0.371391 0.286915 -0.751153 0.371391 0.545745 -0.545745 0.371391 0.751153 
-0.286915 0.371391 0.883034 0 0.371391 0.928477 0.286915 0.371391 0.883034 
0.545745 0.371391 0.751153 0.751153 0.371391 0.545745 0.545745 0.371391 -0.751153 
0.751153 0.371391 -0.545745 0.883034 0.371391 0.286915 0.928477 0.371391 0 
0.883034 0.371391 -0.286915 -6.48866e-08 1 8.11083e-09 0.0527214 -0.998609 0 
-0.0527214 -0.998609 0 0.258446 -0.966026 0 0 0 -1 
0.544315 -0.838881 0 0 0 -1 0 0 1 
0 0 -1 0 0 1 0 0 -1 
0 0 1 0 0 -1 0 0 1 
0 0 -1 0 0 1 0.776903 0.62962 0 
0 0 1 0.544315 0.838881 0 0 0 1 
0 0 -1 0 0 1 0 0 -1 
0 0 1 0 0 -1 0 0 1 
0 0 -1 0 0 1 0 0 -1 
-0.933442 0.358728 0 0 0 -1 -0.998609 0.0527214 0 
0 0 -1 0 0 1 -0.933442 -0.358728 0 
0 0 1 -0.776903 -0.62962 0 -0.62962 -0.776903 0 
-0.544315 -0.838881 0 0 0 1 -0.258446 -0.966026 0 
0 0 -1 0 0 -1 0 0 -1 
0.883034 0.286915 0.371391 0.928477 0 0.371391 0.883034 -0.286915 0.371391 
0 0.928477 0.371391 -0.286915 0.883034 0.371391 -0.545745 0.751153 0.371391 
-0.751153 0.545745 0.371391 -0.883034 0.286915 0.371391 -0.928477 0 0.371391 
-0.883034 -0.286915 0.371391 -0.751153 -0.545745 0.371391 -0.545745 -0.751153 0.371391 
0.751153 -0.545745 0.371391 0.545745 -0.751153 0.371391 -0.286915 -0.883034 0.371391 
0 -0.928477 0.371391 0.286915 -0.883034 0.371391 1.62217e-08 -2.43325e-08 1 
1 0 0 -1 0 0 1 0 0 
0 -0.933442 -0.358728 1 0 0 0 -0.776903 -0.62962 
0 -0.62962 -0.776903 0 -0.544315 -0.838881 0 -0.358728 -0.933442 
0 -0.258446 -0.966026 0 -0.0527214 -0.998609 0 0.0527214 -0.998609 
0 0.258446 -0.966026 0 0.358728 -0.933442 0 0.544315 -0.838881 
-1 0 0 0 0.776903 -0.62962 -1 0 0 
0 0.933442 -0.358728 0 0.966026 -0.258446 0 0.998609 -0.0527214 
0 0.998609 0.0527214 0 0.966026 0.258446 0 0.933442 0.358728 
0 0.838881 0.544315 0 0.776903 0.62962 0 0.62962 0.776903 
0 0.544316 0.838881 1 0 0 0 0.258446 0.966026 
1 0 0 0 -0.0527213 0.998609 0 -0.258446 0.966026 
-1 0 0 0 -0.544316 0.838881 -1 0 0 
1 0 0 -1 0 0 0 -0.933442 0.358728 
-1 0 0 0.371391 0.751153 -0.545745 0.371391 0.545745 -0.751153 
0.371391 0.883034 -0.286915 -1 0 0 -1 0 0 
-1 0 0 -1 0 0 -1 0 0 
-1 0 0 -1 0 0 -1 0 0 
-1 0 0 -1 0 0 -1 0 0 
-1 0 0 -1 0 0 -1 0 0 
-1 0 0 -1 0 0 -1 0 0 
0 1 0 0 -1 0 0 1 0 
0.933442 0 -0.358728 0 1 0 0.776903 0 -0.62962 
0.62962 0 -0.776903 0.544315 0 -0.838881 0.358728 0 -0.933442 
0.258446 0 -0.966026 0.0527214 0 -0.998609 -0.0527214 0 -0.998609 
-0.258446 0 -0.966026 -0.358728 0 -0.933442 -0.544315 0 -0.838881 
0 -1 0 -0.776903 0 -0.62962 0 -1 0 
-0.933442 0 -0.358728 -0.966026 0 -0.258446 -0.998609 0 -0.0527214 
-0.998609 0 0.0527214 -0.966026 0 0.258446 -0.933442 0 0.358728 
-0.838881 0 0.544315 -0.776903 0 0.62962 -0.62962 0 0.776903 
-0.544316 0 0.838881 0 1 0 -0.258446 0 0.966026 
0 1 0 0.0527213 0 0.998609 0.258446 0 0.966026 
0 -1 0 0.544316 0 0.838881 0 -1 0 
0 1 0 0 -1 0 0.933442 0 0.358728 
0 -1 0 -0.751153 0.371391 -0.545745 -0.545745 0.371391 -0.751153 
-0.883034 0.371391 -0.286915 0 -1 0 0 -1 0 
0 -1 0 0 -1 0 0 -1 0 
0 -1 0 0 -1 0 0 -1 0 
0 -1 0 0 -1 0 0 -1 0 
0 -1 0 0 -1 0 0 -1 0 
0 -1 0 0 -1 0 0 -1 0 
0 0 -1 0 0 1 0 0 1 
0.358728 -0.933442 0 0 0 1 0.62962 -0.776903 0 
0.776903 -0.62962 0 0.838881 -0.544315 0 0.933442 -0.358728 0 
0.966026 -0.258446 0 0.998609 -0.0527214 0 0.998609 0.0527214 0 
0.966026 0.258446 0 0.933442 0.358728 0 0.838881 0.544315 0 
0 0 -1 0.62962 0.776903 0 0 0 -1 
0.358728 0.933442 0 0.258446 0.966026 0 0.0527214 0.998609 0 
-0.0527214 0.998609 0 -0.258446 0.966026 0 -0.358728 0.933442 0 
-0.544315 0.838881 0 -0.62962 0.776903 0 -0.776903 0.62962 0 
-0.838881 0.544315 0 0 0 1 -0.966026 0.258446 0 
0 0 1 -0.998609 -0.0527214 0 -0.966026 -0.258446 0 
0 0 -1 -0.838881 -0.544315 0 0 0 -1 
0 0 1 0 0 -1 -0.358728 -0.933442 0 